# vtk DataFile Version 3.0
File created by libpointmatcher
ASCII
DATASET POLYDATA
POINTS 12659 float
            0             0 -2.980232e-08
 0.0005957484   0.002498686  0.0007671416
 0.0005538985    0.00326623   0.000739038
 0.0004408695    0.00308764  0.0009924471
-0.0003220141   0.002753884   0.001242429
 0.0005726069   0.002992824   0.001535475
 0.0002812669    0.00306353    0.00143227
 0.0006420948    0.00297156   0.001348108
 0.0007453412   0.002963498   0.001221031
 0.0005767122   0.002319083  0.0007961094
 0.0008815601   0.002750903  0.0008211434
  0.001161676   0.002726763  0.0005971193
 0.0002781898   0.002057076  0.0008016825
 0.0009683035   0.002683625   0.001632929
 0.0006684288   0.002590477   0.001244307
 0.0007055663   0.002612561   0.001333088
  0.000682909   0.001540676  0.0005259812
  0.000442069   0.001797751  0.0007407665
  0.001145329   0.002533808  0.0009779334
  0.000711102   0.002041608   0.001458973
 0.0005146824    0.00197278   0.001160443
  0.000761833   0.002399951  0.0009943247
  0.001027416   0.002596095    0.00112322
  0.001112759   0.002243876  0.0009903312
 0.0006832182   0.002443641   0.001228422
 0.0009665415   0.002101734   0.001879483
 0.0003661737   0.001644328   0.001225471
 0.0005592406   0.001088336  0.0005961657
 0.0004385486   0.001216576    0.00137952
  0.001014754   0.001381427   0.001224339
 0.0006167889   0.001059219  0.0006577969
  0.001121547   0.001616672  0.0009271801
  0.001092251   0.001587227  0.0005410016
  0.000516139   0.001569986  0.0007213354
 0.0004836656   0.001240879  0.0007997453
 0.0005668178  0.0009853989   0.001070678
  0.001364004   0.001515582  0.0001852512
 0.0008015223    0.00215137   0.001191676
  0.001090277   0.002591699   0.001507342
 0.0007494204   0.001596555  0.0007857084
 0.0009954907   0.002007633  0.0006016195
 0.0007804222   0.001553342  0.0009192228
 0.0006933026   0.001404271   0.000870347
  0.001005016   0.002541333   0.001576066
 0.0008308664   0.002220631    0.00133425
  0.001248982   0.001960278  0.0004290938
 0.0006558672   0.002510592   0.001604438
 0.0009766445   0.002647221   0.001766324
  0.001408696    0.00258553   0.001379728
  0.001330927   0.002956778   0.001075774
  0.001031924   0.001928896   0.001221031
  0.001347676   0.002990097   0.001205593
   0.00100622   0.002449721   0.001033068
 0.0009702034    0.00199689   0.001098216
 0.0008678213   0.001508385  0.0009510517
  0.001219697   0.001922145  0.0006405413
 0.0009836853   0.001593083   0.001244575
  0.001191609    0.00160332    0.00130713
   0.00160766    0.00277175   0.001276791
  0.001548924   0.001672342   0.001079172
 0.0008286573  0.0009132773  0.0006712973
 0.0006801039    0.00159879  0.0009557009
  0.001083672   0.001796797  0.0008320808
 0.0009896569   0.001513064  0.0006475747
  0.001336284    0.00150612  0.0008289218
  0.001129866   0.002075851    0.00116384
 0.0005950481   0.002080351   0.001205206
  0.001195624   0.001481101  0.0009739101
  0.001335941   0.001784042  0.0005129874
 0.0007585846   0.001614273  0.0009419322
 0.0005822033   0.001418829  0.0003752708
  0.001420848    0.00168328  0.0005169511
  0.001411673   0.001657426  0.0005877912
  0.001221925   0.001805753   0.001009524
  0.001317672   0.001689866  0.0004726648
  0.001413245   0.001901567  0.0002324283
  0.001630832   0.001396149  0.0002042651
  0.001394887   0.001325145  0.0004214942
  0.001722448   0.002100483  0.0006379187
  0.001566879   0.001948416  0.0007173717
   0.00106499   0.001266122  0.0003839433
  0.001492701   0.001710072   0.000523895
  0.001610737   0.001402378  0.0005526245
  0.001389202    0.00177142  0.0008821785
   0.00117363   0.001485929  0.0009349883
  0.001322854   0.001602814   0.001319379
 0.0008956678   0.001003012   0.001069129
  0.001555938   0.001203015  0.0009176433
  0.002050634   0.002405867   0.001268536
  0.001549259   0.001987681   0.001293063
  0.001130272   0.001558289   0.000988692
   0.00126905   0.001242995  0.0004863143
  0.001537018   0.001392409  0.0006688833
  0.001310702   0.001443058   0.001137137
  0.001223091   0.001490295  0.0009471774
  0.001658782   0.001682013  0.0008483529
 0.0009057745   0.001642093   0.001001626
 0.0009868443   0.001590475  0.0008455217
  0.001337398   0.001428276  0.0005841553
  0.001757141   0.001393259    0.00020805
  0.001788754   0.001203299  0.0002358258
   0.00175117   0.001456827  0.0004702508
  0.001800861   0.001393273  0.0003735423
  0.001222197   0.001482502  0.0008347332
  0.001309589  0.0004893541   0.000120759
  0.001538761   0.000835672  0.0001157224
  0.001220286   0.001052737 -0.0001374185
 0.0007020049   0.001044691  0.0006784797
   0.00157569   0.001723543  0.0004570782
  0.001210049   0.001168251  0.0005926192
  0.001052897   0.001098529  0.0007383823
  0.001590785  0.0007729679  9.974837e-05
  0.001200505  0.0008517504  0.0005200505
  0.001287017  0.0005853027  0.0003878474
  0.000946451  0.0006456524   0.001044452
  0.001417328  0.0009926409  0.0006600022
  0.001456618  0.0008565336  6.997585e-05
  0.001831975  0.0005379468  0.0001023412
  0.001437683  0.0001596808  2.101064e-05
   0.00158922  0.0003875494 -1.484156e-05
  0.001559567   0.001327053  0.0006743968
  0.001230452    0.00125657   0.001184493
  0.000993859  0.0009640753  0.0008268654
  0.001045033  0.0009042919  0.0001639128
  0.001471728   0.001748353  0.0008154213
  0.001227148  0.0009733886  0.0004995465
  0.001166515   0.001216903  0.0002337396
  0.001373362  0.0009469688  0.0003524423
 0.0009057298  0.0007227957  0.0004380047
  0.001221977    0.00118573   0.000500679
  0.001115769   0.001153335  0.0005020499
   0.00115313  0.0009226054  0.0006736517
  0.001838002   0.001154914  0.0003266633
  0.001503661   0.001104668  0.0002909899
  0.001129258  0.0008701682  0.0007475913
  0.000844039  0.0009016842  0.0007211566
  0.001265027   0.001486704  0.0008501112
  0.001007177  0.0006161779  0.0005161762
  0.001095228  0.0007486492  0.0007361472
 0.0009812899   0.001148462  0.0007432997
  0.001058336  0.0009608716  0.0006717145
  0.001219768  0.0008097291  0.0003874898
  0.001296934    0.00125277   0.000607729
 0.0007289015   0.001098007  0.0008378327
  0.001373086    0.00136818   0.001118273
  0.001070205   0.001750261   0.001389563
   0.00159416   0.001079142  0.0004192591
  0.001352515    0.00109531   0.000726521
  0.001430701  0.0008049905   0.000367254
  0.001258206  0.0005898178  0.0003317893
  0.001618516  0.0008606166  0.0003652573
 0.0009530447  0.0006776452  0.0006330311
   0.00142473   0.001664132  0.0006963015
  0.001385361  0.0008862466   0.000795573
  0.001346409  0.0007601976  0.0003979504
  0.001292501  0.0007577538  0.0003953576
  0.001302086  0.0006491393  0.0002250075
  0.001500912   0.001323789  0.0004427433
  0.002050754    0.00109829  0.0001231134
  0.001405183   0.001532182  0.0009300709
  0.001281936  2.358854e-05  0.0002252162
  0.001604866     0.0011556  0.0002415478
  0.001568526  0.0005793422  4.896522e-05
  0.001219891   0.001121044  0.0001417994
  0.001094092   0.001075178  0.0006824732
  0.001323469   0.001140296   0.001103848
  0.001197878   0.001354381   0.001256257
  0.001807541  0.0006833225  0.0003261566
  0.001845654   0.001676485  0.0002442002
    0.0014068  0.0007208139 -4.777312e-05
  0.001652315   0.002024695  0.0008969009
  0.001795411   0.001033634   0.000628233
   0.00159692  0.0002950281  0.0001806021
  0.001664177  0.0008819699  0.0003392398
  0.001188383  0.0006709397  0.0008535087
  0.001265999  0.0008636564  0.0007642806
  0.001432985    0.00068295  0.0003271699
  0.001609419   0.001175523  0.0006368458
  0.002373978   0.001396731   0.000344485
  0.001745448 -0.0001703054 -0.0001779199
  0.001766052  0.0006962717 -1.370907e-06
   0.00202591   0.000943318  0.0001897812
  0.001694109   0.001560465  0.0005351305
  0.002224647   0.001225919  0.0004382133
  0.001922224  0.0009650141  0.0004986823
   0.00238537  0.0007090718  0.0001188517
  0.001978748  0.0007629097   0.000166744
  0.001820322 -3.670156e-05  0.0001465082
  0.002268385   0.001491189  0.0004560947
  0.002201457  0.0005507171  8.624792e-05
  0.001679998  0.0009247661  0.0006057024
  0.001793675  0.0008990169  0.0007506609
  0.001618467   0.001091152  0.0006382465
  0.001833018  0.0004361421   0.000384748
  0.002158064    0.00144352   0.000353694
  0.002111088   0.001070485  0.0002600551
  0.002135418  0.0004194975 -0.0002361834
  0.001889825  0.0007902235  4.458427e-05
  0.001892224   0.001090586   8.47578e-05
  0.001803808  0.0006396621  7.334352e-05
  0.001894992  0.0006392449  0.0003304482
  0.001871921  0.0008468777  0.0002636909
  0.001518589   0.000804171  0.0001417994
  0.001905009  0.0006924421 -8.022785e-05
  0.002295282  0.0008247793  0.0002905726
  0.001927532  0.0009607971  0.0003996193
  0.001865838  0.0008574426  9.962916e-05
  0.002012417  0.0003324747   0.000122875
   0.00217095  0.0008388609  0.0002972782
  0.002004538  0.0008894205   0.000875771
  0.002000563   0.001151785  0.0001467764
  0.001881834  0.0003404468 -4.997849e-05
  0.002329588  0.0003549457 -3.191829e-05
  0.002162371  0.0001614243 -0.0001932979
  0.001562372  0.0004276633 -0.0002095997
  0.001669794  0.0009030849  0.0002056658
  0.001968324  0.0006946623  3.895164e-05
  0.002201986   0.001011252  0.0002640486
  0.002480298  0.0005455315 -0.0001823604
  0.002215642   0.001162514  0.0005610585
  0.001788031  0.0007424504  0.0007818639
  0.001950495  0.0005037934  0.0006000698
  0.002301179  0.0003974885  0.0001645684
  0.002118178  0.0008783489  0.0003017485
  0.001755413  0.0009711683  0.0009099245
  0.001596399  0.0006915182  0.0008090138
  0.001792844   0.000645861   0.001036346
   0.00190714 -3.691018e-05 -4.738569e-05
  0.002250828   0.001170889  0.0004777908
  0.001946911  7.596612e-05  9.253621e-05
  0.002610382   0.000930801  6.428361e-05
  0.002411567   0.001155362  0.0003523529
  0.001881275  0.0006418228  0.0007155538
  0.001915984  0.0007168949  0.0005464852
  0.001992561  0.0007777065  0.0003374517
[...]
POINT_DATA 12659
VECTORS orientationX float
   0.03193521    -0.9994861   0.002777368
   0.02819249    -0.9995903    0.00493817
   0.02781645    -0.9996015   0.004803836
   0.02741716    -0.9996141   0.004486501
   0.02762708    -0.9996089   0.004336298
   0.02757161    -0.9996101   0.004424378
   0.02745699    -0.9996129   0.004509866
   0.02737141    -0.9996152    0.00451231
   0.02774496     -0.999605   0.004490823
   0.02766246    -0.9996062   0.004715621
    0.0278172    -0.9996045   0.004133776
   0.02727426    -0.9996188   0.004277349
   0.02734816     -0.999617   0.004236042
   0.02777934     -0.999606   0.004031345
   0.02714597    -0.9996219   0.004394785
   0.02751719    -0.9996101   0.004753545
   0.02660072    -0.9996348   0.004747584
   0.02760557    -0.9996104   0.004120842
   0.02716903    -0.9996206    0.00453651
   0.02749694     -0.999612   0.004437327
   0.02674728    -0.9996325   0.004422367
   0.02696553    -0.9996263    0.00447683
   0.02699435    -0.9996259   0.004413038
   0.02696388    -0.9996277   0.004173324
    0.0270288    -0.9996259   0.004193068
    0.0276754     -0.999608   0.004255936
   0.02779565     -0.999608    0.00337024
   0.02824482    -0.9995929   0.004060835
   0.02867102    -0.9995811    0.00397706
    0.0290217     -0.999572    0.00369218
   0.02803565    -0.9995977   0.004308775
   0.02835179    -0.9995906   0.003855258
   0.02759689    -0.9996113   0.003940031
   0.02799791    -0.9996004   0.003935903
   0.02820333     -0.999593   0.004267707
   0.02793908    -0.9996012    0.00407508
   0.02724185    -0.9996203   0.004153252
   0.02729125    -0.9996185   0.004264712
   0.02752705    -0.9996115   0.004379958
   0.02680402    -0.9996328   0.004024491
   0.02622478    -0.9996436   0.005022854
   0.02741043    -0.9996147   0.004389584
   0.02763131    -0.9996093   0.004236519
   0.02660843    -0.9996337   0.004927665
   0.02706152    -0.9996243   0.004379794
   0.02680478     -0.999631   0.004416794
   0.02631941    -0.9996443   0.004312336
   0.02639267    -0.9996417   0.004457608
   0.02714039    -0.9996232   0.004091993
    0.0263314    -0.9996427   0.004578993
   0.02683892    -0.9996284   0.004761711
   0.02617845     -0.999648   0.004323497
   0.02595873    -0.9996547   0.004075065
    0.0268282     -0.999631    0.00422284
   0.02700604    -0.9996279   0.003828749
   0.02663653    -0.9996372    0.00399895
   0.02749456    -0.9996132   0.004160002
   0.02730045    -0.9996214   0.003439531
   0.02686028    -0.9996301   0.004276797
   0.02719376    -0.9996207   0.004351094
   0.02705601    -0.9996243   0.004370809
   0.02662532    -0.9996369   0.004151657
   0.02634596    -0.9996443   0.004123256
   0.02678047    -0.9996307   0.004596591
   0.02669718    -0.9996319   0.004803896
    0.0269296    -0.9996277    0.00438948
   0.02650964    -0.9996389   0.004392743
    0.0267267    -0.9996311    0.00482887
   0.02673836    -0.9996316   0.004655227
   0.02609916    -0.9996488    0.00457792
   0.02623928    -0.9996465   0.004285663
   0.02620501    -0.9996471   0.004351422
   0.02677377    -0.9996308    0.00463362
   0.02657829    -0.9996337   0.005101055
   0.02661003    -0.9996343   0.004831195
   0.02644792    -0.9996379   0.004945621
   0.02683435    -0.9996283   0.004783064
   0.02674397    -0.9996296     0.0050423
   0.02624276    -0.9996427   0.005072236
   0.02585131    -0.9996539   0.004874647
   0.02661707    -0.9996353   0.004550144
   0.02648412    -0.9996398   0.004341692
   0.02575374    -0.9996591   0.004312485
   0.02587639    -0.9996536   0.004844531
   0.02650842    -0.9996396   0.004238382
   0.02685889    -0.9996288   0.004564792
   0.02717412    -0.9996232   0.003885031
    0.0266674    -0.9996381   0.003546312
   0.02654964    -0.9996392   0.004069135
   0.02708381    -0.9996247   0.004131511
   0.02687207    -0.9996297   0.004294083
   0.02628087    -0.9996468   0.003950566
   0.02608305    -0.9996514   0.004073769
   0.02698534    -0.9996274   0.004133105
   0.02711711    -0.9996225   0.004406288
   0.02676313    -0.9996322   0.004397243
   0.02631495     -0.999642   0.004854336
   0.02561437    -0.9996606   0.004774749
   0.02677014    -0.9996314   0.004499644
   0.02662561    -0.9996347   0.004639015
   0.02630927    -0.9996408   0.005135238
    0.0267157    -0.9996331   0.004462317
   0.02642492    -0.9996389   0.004892588
   0.02659423    -0.9996358   0.004600465
   0.02654223    -0.9996368    0.00466454
   0.02688885    -0.9996274   0.004683629
   0.02610754    -0.9996475   0.004839852
   0.02664762     -0.999634   0.004656538
   0.02619148    -0.9996442   0.005068228
   0.02582837    -0.9996578   0.004187614
   0.02608614    -0.9996505   0.004311323
   0.02636482    -0.9996419   0.004606798
   0.02712225    -0.9996225   0.004398182
   0.02711614    -0.9996216   0.004607737
   0.02733767    -0.9996168   0.004372999
   0.02681839    -0.9996305   0.004447371
   0.02637819      -0.99964   0.004907265
   0.02696072    -0.9996248    0.00482367
   0.02722389    -0.9996197   0.004386455
   0.02699104    -0.9996278   0.003978431
   0.02695807    -0.9996281   0.004137754
   0.02730109    -0.9996174   0.004442036
   0.02687459    -0.9996281    0.00462392
   0.02623164    -0.9996461    0.00441587
   0.02570002    -0.9996603    0.00434716
   0.02727628    -0.9996156   0.004936174
   0.02720148    -0.9996175   0.005001172
   0.02728815    -0.9996184   0.004273832
    0.0264397    -0.9996421    0.00404647
   0.02615378    -0.9996476   0.004567578
   0.02662544    -0.9996341   0.004781872
   0.02660704    -0.9996358   0.004534274
   0.02666189    -0.9996334   0.004748881
   0.02672498    -0.9996318   0.004702911
   0.02644874    -0.9996399   0.004551291
   0.02614868    -0.9996477   0.004551277
   0.02599842    -0.9996523   0.004422173
   0.02648355    -0.9996392   0.004507184
    0.0267123    -0.9996333   0.004473686
   0.02657271    -0.9996371   0.004430816
   0.02660004    -0.9996369     0.0043246
   0.02635345    -0.9996443   0.004099607
   0.02668793    -0.9996334   0.004585847
   0.02668199    -0.9996331   0.004646897
   0.02685008    -0.9996303   0.004283622
   0.02668433    -0.9996365   0.003839016
   0.02641977    -0.9996433   0.003907755
    0.0268051    -0.9996298   0.004644722
   0.02658031    -0.9996341    0.00500679
   0.02640122    -0.9996393   0.004924774
   0.02670146    -0.9996325   0.004708961
    0.0268085    -0.9996319   0.004167527
   0.02621099    -0.9996479   0.004148692
   0.02606392    -0.9996492   0.004696742
   0.02633644    -0.9996411    0.00489296
    0.0269931    -0.9996237   0.004895121
   0.02659336    -0.9996349   0.004802689
   0.02571175    -0.9996601   0.004339427
   0.02634741    -0.9996429    0.00446029
    0.0275098     -0.999613   0.004157469
   0.02700172    -0.9996263    0.00427562
   0.02629473    -0.9996439   0.004564837
   0.02654496    -0.9996361   0.004792601
   0.02601279    -0.9996507   0.004669636
   0.02616696    -0.9996457   0.004880086
   0.02634018    -0.9996411   0.004873052
   0.02635508    -0.9996415   0.004737943
   0.02574866    -0.9996562   0.004950643
   0.02572214    -0.9996567   0.004971325
    0.0256499    -0.9996593   0.004825681
   0.02541443    -0.9996655   0.004790187
   0.02593124    -0.9996525    0.00471285
   0.02572426    -0.9996597   0.004354447
   0.02554273    -0.9996617   0.004899308
   0.02608708    -0.9996496   0.004480913
    0.0258578    -0.9996558    0.00442411
   0.02594414    -0.9996518   0.004810244
   0.02620483    -0.9996466   0.004461169
   0.02677654    -0.9996315   0.004475832
   0.02625951    -0.9996444   0.004638672
   0.02634111      -0.99964   0.005114391
   0.02648195    -0.9996374   0.004858911
    0.0259223    -0.9996541   0.004439816
   0.02564533    -0.9996603   0.004659817
   0.02606244    -0.9996501   0.004522875
   0.02576786    -0.9996591   0.004196852
    0.0262363    -0.9996457    0.00450924
   0.02667001    -0.9996321   0.004935369
    0.0261964    -0.9996462   0.004586145
   0.02607659    -0.9996485   0.004791722
   0.02582573     -0.999657   0.004377007
   0.02570218    -0.9996578    0.00487712
   0.02582308    -0.9996554     0.0047272
   0.02616194    -0.9996473   0.004536793
   0.02623917    -0.9996433   0.004958704
   0.02597961    -0.9996502   0.004962295
   0.02583369    -0.9996533   0.005077809
    0.0260518    -0.9996475    0.00511311
   0.02607249    -0.9996476   0.004984051
   0.02629719    -0.9996421   0.004920334
   0.02603822    -0.9996477   0.005175292
   0.02580521    -0.9996553   0.004839331
   0.02483574    -0.9996808   0.004641399
   0.02487173    -0.9996769   0.005238488
   0.02569019    -0.9996558   0.005317047
   0.02553888    -0.9996601    0.00524126
   0.02589282    -0.9996527    0.00489381
    0.0256364    -0.9996608    0.00458163
   0.02585681    -0.9996537   0.004909754
   0.02564869    -0.9996579   0.005099252
     0.025853    -0.9996533   0.004968077
   0.02536697    -0.9996665   0.004824072
   0.02628779    -0.9996443   0.004494086
   0.02622107     -0.999645   0.004732743
    0.0255728    -0.9996606   0.004989773
   0.02565857    -0.9996596   0.004709855
     0.025447    -0.9996624   0.005251944
   0.02501545    -0.9996749   0.004937857
   0.02560117    -0.9996606   0.004829451
   0.02620585     -0.999643   0.005208224
   0.02618255    -0.9996461   0.004710674
   0.02639669     -0.999642   0.004381195
   0.02573942    -0.9996599   0.004187971
   0.02576035    -0.9996575   0.004622355
   0.02620647    -0.9996479   0.004160732
   0.02577557    -0.9996585   0.004303217
   0.02646869    -0.9996396   0.004473567
     0.026057    -0.9996481   0.004964113
   0.02646952    -0.9996365   0.005106062
   0.02651685     -0.999637   0.004759699
   0.02589957    -0.9996545    0.00447616
   0.02521957    -0.9996708   0.004717514
   0.02523051    -0.9996686   0.005129337
   0.02570513    -0.9996597   0.004443511
   0.02570633    -0.9996588   0.004645243
   0.02603882    -0.9996492   0.004831374
   0.02683883    -0.9996284   0.004771754
   0.02564897    -0.9996598   0.004708871
   0.02580459    -0.9996548   0.004919112
   0.02596291    -0.9996517   0.004731163
   0.02586013    -0.9996563    0.00432317
   0.02568357    -0.9996598   0.004541412
   0.02534299    -0.9996679   0.004685983
    0.0257024    -0.9996564   0.005137742
   0.02569612     -0.999659   0.004651055
   0.02593611    -0.9996539   0.004392222
   0.02584146    -0.9996563   0.004434288
   0.02645811    -0.9996393   0.004606649
   0.02662127    -0.9996362   0.004341424
   0.02585955    -0.9996562   0.004305393
   0.02533109    -0.9996671   0.004904985
   0.02572175    -0.9996573   0.004873216
   0.02581027    -0.9996575   0.004339159
   0.02586021    -0.9996541   0.004798144
    0.0256639      -0.99966   0.004616603
    0.0249538    -0.9996747    0.00525485
   0.02502024    -0.9996758   0.004735947
   0.02486653    -0.9996746   0.005684435
    0.0255001     -0.999658   0.005788594
   0.02525435    -0.9996662   0.005447865
   0.02439433    -0.9996862   0.005682543
   0.02523311    -0.9996659   0.005598143
   0.02585775    -0.9996524   0.005125433
   0.02571141    -0.9996557    0.00523515
   0.02526158    -0.9996696   0.004750744
   0.02475835     -0.999679   0.005349919
   0.02573646    -0.9996583   0.004585773
   0.02487542    -0.9996799   0.004610986
   0.02567505    -0.9996568   0.005204871
   0.02609439    -0.9996463    0.00512521
   0.02616689    -0.9996484   0.004290819
   0.02550436    -0.9996631   0.004823953
   0.02594261      -0.99965   0.005174786
   0.02611614    -0.9996466   0.004954606
   0.02456977    -0.9996839   0.005334184
   0.02620681    -0.9996424   0.005291894
   0.02578027    -0.9996588   0.004209101
   0.02591451    -0.9996529   0.004760996
   0.02695947    -0.9996246   0.004904866
   0.02680391    -0.9996282   0.005012602
    0.0265646     -0.999638   0.004262865
   0.02666837    -0.9996339   0.004583076
   0.02646018    -0.9996386   0.004764766
   0.02620096    -0.9996468   0.004447907
   0.02635496    -0.9996438   0.004192889
   0.02618646    -0.9996463   0.004664987
   0.02597674    -0.9996518   0.004661694
   0.02608708    -0.9996474   0.004961595
   0.02599096    -0.9996515   0.004644275
   0.02616614    -0.9996487   0.004257679
   0.02556488    -0.9996643   0.004210517
   0.02607029    -0.9996495    0.00461176
   0.02604114    -0.9996487    0.00494656
   0.02528943    -0.9996679   0.004964054
   0.02576864    -0.9996575   0.004574403
   0.02558983    -0.9996624   0.004508093
   0.02633865    -0.9996418   0.004746228
   0.02628866    -0.9996435   0.004685268
   0.02586677    -0.9996538   0.004821464
   0.02592757    -0.9996522   0.004832819
   0.02602511    -0.9996486   0.005038455
   0.02563827    -0.9996603   0.004722819
   0.02575222    -0.9996582   0.004503772
   0.02574124    -0.9996573    0.00477156
   0.02607055    -0.9996502   0.004482612
   0.02651489    -0.9996409   0.003882512
   0.02671038    -0.9996348   0.004095674
   0.02703501    -0.9996259   0.004150584
   0.02646201    -0.9996418   0.004031375
   0.02680594    -0.9996312   0.004349068
    0.0264085    -0.9996443   0.003705606
   0.02640193    -0.9996455    0.00345622
    0.0268641    -0.9996319   0.003792077
   0.02710122    -0.9996271   0.003345042
   0.02690438    -0.9996315   0.003627062
   0.02719495    -0.9996218   0.004094496
   0.02670822    -0.9996317    0.00481829
   0.02660339    -0.9996369   0.004282504
   0.02654789    -0.9996373   0.004532069
   0.02632423    -0.9996423   0.004743621
    0.0266067     -0.999634   0.004906207
   0.02632706    -0.9996437   0.004402369
   0.02637155    -0.9996431   0.004253224
   0.02656493     -0.999639   0.004024968
   0.02671118    -0.9996341   0.004281476
   0.02607429    -0.9996521   0.003968209
    0.0259065    -0.9996548   0.004379824
   0.02669976     -0.999631   0.005013123
   0.02634039    -0.9996439   0.004294991
   0.02679843    -0.9996331   0.003929824
   0.02657825    -0.9996365    0.00451085
   0.02614035    -0.9996482   0.004518256
   0.02626287     -0.999644    0.00470531
   0.02613144    -0.9996486   0.004450783
   0.02578064    -0.9996562   0.004771397
     0.026249    -0.9996453   0.004498199
   0.02643266    -0.9996409   0.004423127
   0.02661365    -0.9996374   0.004102871
   0.02664397     -0.999635   0.004460737
   0.02647076     -0.999639   0.004615679
   0.02578472    -0.9996575   0.004507214
   0.02624004    -0.9996462   0.004346997
   0.02634293    -0.9996451   0.003997952
    0.0263173    -0.9996439   0.004416943
   0.02625768    -0.9996452   0.004472062
   0.02617365    -0.9996469    0.00457409
   0.02578275    -0.9996576   0.004502639
   0.02688982    -0.9996287   0.004414573
   0.02594618    -0.9996531   0.004531384
   0.02630778     -0.999644   0.004473135
   0.02648063    -0.9996403   0.004248768
   0.02654793    -0.9996383   0.004305705
   0.02662579    -0.9996347   0.004625067
   0.02607518    -0.9996493   0.004636243
   0.02645478    -0.9996423   0.003945291
   0.02646335    -0.9996395   0.004546463
   0.02671713    -0.9996337   0.004328862
   0.02662181    -0.9996352   0.004537657
   0.02621273    -0.9996452   0.004756004
   0.02659385    -0.9996369   0.004352078
   0.02677277    -0.9996306   0.004695222
   0.02668013    -0.9996344   0.004389256
   0.02638838    -0.9996418   0.004470319
   0.02606364    -0.9996507   0.004356533
   0.02666958    -0.9996334   0.004657537
   0.02634717    -0.9996431   0.004403874
    0.0265518    -0.9996375   0.004443213
   0.02597101    -0.9996513   0.004782423
   0.02610177    -0.9996474   0.004881829
   0.02590313    -0.9996534   0.004703552
   0.02607714    -0.9996507   0.004304945
   0.02598689     -0.999654   0.004054308
   0.02577643     -0.999658   0.004416153
   0.02569964    -0.9996586   0.004717186
   0.02589201    -0.9996549   0.004422009
   0.02577507     -0.999656   0.004851088
   0.02592462     -0.999652   0.004870266
   0.02622328    -0.9996449   0.004720554
   0.02590598     -0.999653   0.004766405
   0.02654408     -0.999639   0.004143164
   0.02653708    -0.9996378   0.004487485
   0.02641004    -0.9996411    0.00452204
   0.02624629    -0.9996453   0.004524872
   0.02628938    -0.9996436   0.004660577
    0.0257228      -0.99966   0.004250273
   0.02620302    -0.9996457   0.004688621
   0.02633948    -0.9996429    0.00452207
   0.02672118    -0.9996319   0.004702866
   0.02584642    -0.9996533   0.005018875
   0.02608837    -0.9996487   0.004680246
   0.02553468    -0.9996634    0.00458093
   0.02627597    -0.9996449   0.004428536
   0.02564586    -0.9996602   0.004670978
   0.02539892    -0.9996654   0.004890412
   0.02620646    -0.9996454   0.004711136
   0.02619456    -0.9996449   0.004892886
   0.02589067    -0.9996525   0.004950911
   0.02650138     -0.999639   0.004419878
   0.02622277    -0.9996471   0.004276365
   0.02669109     -0.999633   0.004598022
   0.02629544    -0.9996414   0.005059227
   0.02638073      -0.99964   0.004878521
   0.02607309    -0.9996485   0.004830331
   0.02614707     -0.999648   0.004510894
   0.02674872    -0.9996319    0.00452286
   0.02650327    -0.9996367   0.004897282
   0.02697818    -0.9996248    0.00473696
   0.02662518    -0.9996354   0.004501536
   0.02606365    -0.9996495    0.00464569
   0.02601146    -0.9996491   0.005000651
   0.02567288    -0.9996591   0.004744291
   0.02541844    -0.9996679   0.004246205
   0.02538492    -0.9996679   0.004425421
   0.02610555     -0.999647   0.004923165
   0.02586554    -0.9996542   0.004740924
   0.02620533    -0.9996459    0.00461179
   0.02669087    -0.9996343   0.004351124
    0.0268355      -0.99963   0.004437104
   0.02613402    -0.9996482   0.004554391
   0.02619161     -0.999647   0.004454568
    0.0266207    -0.9996352   0.004556969
    0.0262771    -0.9996443   0.004557148
   0.02627027    -0.9996426   0.004971743
   0.02726274     -0.999617   0.004755452
   0.02688459    -0.9996281   0.004574701
   0.02625197    -0.9996477   0.003932118
   0.02659659    -0.9996361   0.004517704
   0.02669393    -0.9996333    0.00454618
   0.02572248    -0.9996585   0.004611403
   0.02590395    -0.9996541   0.004543886
    0.0256136    -0.9996613   0.004606783
    0.0257593    -0.9996554   0.005048811
   0.02497165     -0.999678   0.004536301
   0.02462064    -0.9996839   0.005093321
    0.0252673    -0.9996693   0.004801914
   0.02464309    -0.9996867   0.004388496
   0.02478568    -0.9996803   0.004975289
   0.02575934    -0.9996567   0.004771337
   0.02546708    -0.9996666   0.004267678
   0.02580256    -0.9996573   0.004432678
   0.02643809    -0.9996438   0.003630534
   0.02588963    -0.9996547   0.004501805
   0.02656617    -0.9996372    0.00444442
     0.026619    -0.9996352   0.004594907
   0.02717766    -0.9996194   0.004735395
   0.02668721    -0.9996329   0.004674211
    0.0265937    -0.9996343   0.004885942
   0.02678883    -0.9996299   0.004728332
   0.02614029    -0.9996492    0.00424242
   0.02668075    -0.9996337   0.004529849
   0.02632027    -0.9996421   0.004799306
   0.02696403    -0.9996262   0.004522085
    0.0264786    -0.9996397   0.004412428
   0.02632347    -0.9996425   0.004693463
   0.02652332    -0.9996386   0.004365534
   0.02666177    -0.9996346   0.004447028
    0.0264013    -0.9996405   0.004677191
   0.02638421    -0.9996417    0.00453423
   0.02666233    -0.9996322   0.004959285
   0.02626446    -0.9996439   0.004715517
   0.02586499    -0.9996527   0.005043507
   0.02581151    -0.9996563   0.004575729
   0.02553418    -0.9996621   0.004881322
    0.0262064    -0.9996459   0.004632249
   0.02612673    -0.9996471   0.004812822
   0.02582579    -0.9996521   0.005352244
   0.02549433    -0.9996617   0.005156174
   0.02485873    -0.9996762   0.005421951
    0.0258668    -0.9996547    0.00464569
   0.02584835    -0.9996572   0.004201993
   0.02562807    -0.9996564   0.005521327
   0.02654953    -0.9996343   0.005137205
   0.02578435    -0.9996535   0.005273774
   0.02622128     -0.999644   0.004914731
   0.02612172    -0.9996462   0.005003452